# vtk DataFile Version 4.2
written by meshio v4.4.6
ASCII
DATASET UNSTRUCTURED_GRID
POINTS 21 double
0.0 0.0 0.0 2.0 0.0 0.0 2.0 1.0 0.0 0.0 1.0 0.0 1.0 0.0 0.0 1.0 1.0 0.0 0.499999999998694 0.0 0.0 1.5 0.0 0.0 2.0 0.499999999998694 0.0 1.5 1.0 0.0 1.0 0.5000000000020591 0.0 0.0 0.499999999998694 0.0 0.499999999998694 1.0 0.0 0.7062499999993965 0.2937500000007634 0.0 0.6249999999999999 0.6250000000008413 0.0 0.3520833333329411 0.3562499999999332 0.0 0.2812499999995565 0.7187499999993007 0.0 1.293750000000155 0.293750000000592 0.0 1.375 0.625000000000515 0.0 1.64791666666678 0.3562499999999591 0.0 1.718750000000525 0.7187499999999537 0.0
CELLS 28 112
3
0
11
15
3
12
5
14
3
5
10
14
3
6
0
15
3
11
3
16
3
3
12
16
3
10
4
13
3
4
6
13
3
15
11
16
3
10
13
14
3
14
13
15
3
12
14
16
3
14
15
16
3
13
6
15
3
1
8
19
3
5
10
18
3
9
5
18
3
7
1
19
3
8
2
20
3
2
9
20
3
10
4
17
3
4
7
17
3
19
8
20
3
10
17
18
3
18
17
19
3
18
19
20
3
9
18
20
3
17
7
19
CELL_TYPES 28
5
5
5
5
5
5
5
5
5
5
5
5
5
5
5
5
5
5
5
5
5
5
5
5
5
5
5
5
POINT_DATA 21
FIELD FieldData 1
node_groups 1 21 long
200 200 200 200 200 200 200 200 200 200 300 200 200 300 300 300 300 301 301 301 301
CELL_DATA 28
FIELD FieldData 1
mat_id 1 28 long
300 300 300 300 300 300 300 300 300 300 300 300 300 300 301 301 301 301 301 301 301 301 301 301 301 301 301 301
